title                                    = NVT-heat
define                                   = -DPOSRES      ; Enable restraints
integrator                               = sd            ; Langevin integrator
ld-seed                                  = -1            ; Langevin seed [-1]
nsteps                                   = 5000
tinit                                    = 0             ; Start time
dt                                       = 0.002
pbc                                      = xyz           ; Periodic boundary conditions
comm-mode                                = Linear        ; remove center of mass translation
nstcomm                                  = 50            ; frequency for center of mass motion removal
nstxout                                  = 0          ; don't save coordinates to .trr
nstvout                                  = 0          ; don't save velocities to .trr
nstfout                                  = 0          ; don't save forces to .trr
nstxout-compressed                       = 0       ; xtc write frequency [steps]
compressed-x-precision                   = 0       ; xtc precision [default]
nstlog                                   = 0       ; log update frequency [steps]
nstenergy                                = 0       ; energy update frequency [steps]
nstcalcenergy                            = 50         ; calculate energies every 100 steps
constraint_algorithm                     = lincs      ; holonomic constraints
constraints                              = all-bonds  ; hydrogens only are constrained
lincs-iter                               = 1          ; lincs corr iterations [1]
lincs-order                              = 6          ; highest order in expansions [4]
lincs-warnangle                          = 30         ; maximum angle rot of bond [30]
continuation                             = no         ; formerly known as 'unconstrained-start' - useful for exact continuations and reruns
cutoff-scheme                            = Verlet
ns-type                                  = grid   ; search neighboring grid cells
nstlist                                  = 10     ; with verlet this is a minimum
rlist                                    = 1.2    ; short-range neighborlist cutoff (in nm)
coulombtype                              = PME      ; Long range electrostatics treatment
rcoulomb                                 = 1.0      ; Electrostatics cutoff [nm]
ewald_geometry                           = 3d       ; Ewald sum is performed in all 3Ds
pme-order                                = 4        ; interpolation order for PME [4]
fourierspacing                           = 0.10     ; grid spacing for FFT [0.12 nm]
ewald-rtol                               = 1e-6     ; relative strength of the Ewald-shifted direct potential at rcoulomb [1e-5]
vdwtype                                  = Cut-off  ; Type of VDW handling
rvdw                                     = 1.0      ; Cutoff distance [nm]
vdw-modifier                             = Potential-Shift-Verlet  ; Shift potential so zero energy at cutoff
DispCorr                                 = EnerPres ; Apply long range dispersion corr for Ener and Pres
tc-grps                                  = System ; Treat everything as a single group
tau-t                                    = 2.0    ; Inverse friction with sd
ref-t                                    = 298.15 ; Set temp at 298.15 K
pcoupl                                   = no    ; No pressure coupling
gen-vel                                  = yes      ; Velocity generation is on (if gen_vel is 'yes', continuation should be 'no')
gen-seed                                 = -1       ; Use random seed
gen-temp                                 = 10       ; Start temp low and let the system catch up
